VARIABLES="X","Y","Z","X01","Y01","Z01","X02","Y02","Z02","X03","Y03","Z03"                                                                                                                                                                                                                                                                                                                                                                                                                                                                                                                                                                                                                                                                                                                                                     
 ZONE I=   65,J=   25,K=    1,F=BLOCK
   12.9954589618003        12.9990665849987        13.0033206617241     
   13.0083343481337        13.0142395836241        13.0211898137061     
   13.0293629519975        13.0389645357336        13.0502309931220     
   13.0634328915506        13.0788779703145        13.0969136778384     
   13.1179288302357        13.1423538864535        13.1706591200560     
   13.2033500885507        13.2409595040883        13.2840344112884     
   13.3331176508341        13.3887233211337        13.4513061344397     
   13.5212243439983        13.5986983612586        13.6837681592103     
   13.7762520458811        13.8757142326916        13.9814444212526     
   14.0924569284412        14.2075123590584        14.3251629768532     
   14.4438199899779        14.5618365728499        14.6775980898406     
   14.7894380951077        14.8961528925435        14.9967051748354     
   15.0903366491823        15.1765713470282        15.2551949322610     
   15.3262217177662        15.3898536815189        15.4517520772975     
   15.5157105002674        15.5813260808800        15.6469108838452     
   15.7087202803050        15.7661269503326        15.8193413968866     
   15.8675782606066        15.9104221117979        15.9477911695566     
   15.9798705423601        16.0070337289240        16.0297672043915     
   16.0486056341552        16.0640851766629        16.0767189471153     
   16.0869734208215        16.0952598826403        16.1019327713780     
   16.1072922735434        16.1115892567141        16.1150312293312     
   16.1177884866963        16.1199999500000        12.9997014175626     
   13.0033045470705        13.0075533248348        13.0125607660406     
   13.0184586457061        13.0254002181617        13.0335631753483     
   13.0431527983904        13.0544052208734        13.0675906729939     
   13.0830165104958        13.1010297487167        13.1220187190613     
   13.1464133437838        13.1746833100272        13.2073335447754     
   13.2448960956684        13.2879173248023        13.3369393954400     
   13.3924757642948        13.4549805759180        13.5248116361699     
   13.6021890811590        13.6871528338479        13.7795214291068     
   13.8788596226184        13.9844580031563        14.0953321186631     
   14.2102441216647        14.3277480833963        14.4462571949845     
   14.5641266854502        14.6797439326713        14.7914445679037     
   14.8980263942870        14.9984533977901        15.0919682274886     
   15.1780955036592        15.2566211534561        15.3275594689472     
   15.3911121743818        15.4529334704840        15.5168122257648     
   15.5823460707096        15.6478491706198        15.7095815603095     
   15.7669167008476        15.8200648332873        15.8682415778011     
   15.9110320239922        15.9483544948469        15.9803938701482     
   16.0075231848882        16.0302283092986        16.0490432433818     
   16.0645034779577        16.0771214890113        16.0873631705453     
   16.0956392947545        16.1023038585480        16.1076566741140     
   16.1119482961664        16.1153859743298        16.1181397914855     
   16.1203484955266        13.0044334202889        13.0080314910230     
   13.0122743034798        13.0172747141451        13.0231643129882     
   13.0300961391180        13.0382476349227        13.0478237932104     
   13.0590604158955        13.0722273535820        13.0876315302319     
   13.1056194736356        13.1265789695388        13.1509393360160     
   13.1791696000510        13.2117739788212        13.2492837719024     
   13.2922445730529        13.3411977829476        13.3966561359372     
   13.4590731375179        13.5288060899504        13.6060748194361     
   13.6909191926893        13.7831580000284        13.8823566099257     
   13.9878066099648        14.0985249340355        14.2132754770700     
   14.3306143451020        14.4489569615728        14.5666608684090     
   14.6821157100888        14.7936594560230        14.9000915969749     
   15.0003775748163        15.0937610987035        15.1797674515292     
   15.2581828566281        15.3290215825143        15.3924850677531     
   15.4542195734717        15.5180086473609        15.5834504826992     
   15.6488616093239        15.7105073119152        15.7677619307154     
   15.8208354119937        15.8689444786654        15.9116748050135     
   15.9489448310831        15.9809391793133        16.0080303627588     
   16.0307035707527        16.0494920542964        16.0649305526704     
   16.0775308222896        16.0877581027666        16.0960225891730     
   16.1026777809539        16.1080230689054        16.1123086555325     
   16.1157414990934        16.1184914433335        16.1206970410533     
   13.0097081279839        13.0133005135008        13.0175366219476     
   13.0225291314591        13.0284094240403        13.0353302969273     
   13.0434689120527        13.0530299382056        13.0642488045576     
   13.0773949351145        13.0927747685883        13.1107342848489     
   13.1316606564143        13.1559825223647        13.1841681677786     
   13.2167210121361        13.2541715143222        13.2970644046247     
   13.3459402267150        13.4013109031540        13.4636292212809     
   13.5332519174390        13.6103984696026        13.6951086813410     
   13.7872016301328        13.8862433732087        13.9915266207322     
   14.1020698642412        14.2166389568937        14.3337922915186     
   14.4519478002860        14.5694656243798        14.6847379554534     
   14.7961053904771        14.9023693166691        15.0024968120841     
   15.0957327769983        15.1816032387157        15.2598947532391     
   15.3306215624965        15.3939847839403        15.4556217562914     
   15.5193100477376        15.5846484839237        15.6499562518277     
   15.7115045358429        15.7686686642239        15.8216582520057     
   15.8696912614365        15.9123540239601        15.9495651112789     
   15.9815088567278        16.0085571868885        16.0311945259584     
   16.0499532832471        16.0653673534724        16.0779476843999     
   16.0881587802330        16.0964101874602        16.1030548464631     
   16.1083916744623        16.1126704781364        16.1160978882934     
   16.1188434799260        16.1210455865799        13.0155836453522     
   13.0191696521381        13.0233982387835        13.0283818833157     
   13.0342517344069        13.0411603179155        13.0492844811073     
   13.0588285292266        13.0700274732338        13.0831502584981     
   13.0985027792887        13.1164304007180        13.1373196072731     
   13.1615982762152        13.1897338602198        13.2222288837683     
   13.2596128625115        13.3024295579485        13.3512185522232     
   13.4064908571051        13.4686984542049        13.5381974449594     
   13.6152069166928        13.6997666021942        13.7916959012094     
   13.8905616438304        13.9956577998218        14.1060046084532     
   14.2203701200355        14.3373152931684        14.4552608747602     
   14.5725699222609        14.6876374851150        14.7988071082413     
   14.9048823065022        15.0048319937177        15.0979024063524     
   15.1836204066746        15.2617729237493        15.3323741695611     
   15.3956249012275        15.4571524470300        15.5207276664476     
   15.5859500945139        15.6511418992806        15.7125808842764     
   15.7696434862598        15.8225389486798        15.8704866243305     
   15.9130735820583        15.9502185413842        15.9821055113782     
   16.0091057607041        16.0317028551672        16.0504282597707     
   16.0658149216874        16.0783728814166        16.0885658180589     
   16.0968025504099        16.1034353915919        16.1087627274803     
   16.1130339206400        16.1164552344807        16.1191959424559     
   16.1213941321065        13.0221232776543        13.0257021391223     
   13.0299223000068        13.0348960141792        13.0407541689372     
   13.0476489861478        13.0557569605939        13.0652819902850     
   13.0764586177105        13.0895552520816        13.1048771777951     
   13.1227690713265        13.1436166464470        13.1678469270469     
   13.1959264333662        13.2283566873332        13.2656661480170     
   13.3083974917125        13.3570892234988        13.4122513349206     
   13.4743349050625        13.5436953241955        13.6205512421008     
   13.7049423123482        13.7966882957568        13.8953568882436     
   14.0002434706339        14.1103702400405        14.2245077080292     
   14.3412197073415        14.4589301378759        14.5760053237596     
   14.6908435155722        14.8017915603286        14.9076553560849     
   15.0074058730371        15.1002908441924        15.1858380668778     
   15.2638348878709        15.3342954855020        15.3974202131987     
   15.4588251861275        15.5222737490193        15.5873662314347     
   15.6524281405629        15.7137446942944        15.7706935710784     
   15.8234835981746        15.8713356860688        15.9138377297065     
   15.9509086142915        15.9827319857635        16.0096783758956     
   16.0322303890182        16.0509184324019        16.0662743918408     
   16.0788072915603        16.0889798864137        16.0972001800580     
   16.1038197829759        16.1091364858401        16.1133991537263     
   16.1168136384899        16.1195488758026        16.1217426776332     
   13.0293957415706        13.0329666118142        13.0371773494449     
   13.0421399576408        13.0479850313824        13.0548644525570     
   13.0629543217355        13.0724580814821        13.0836097503547     
   13.0966771379334        13.1119648465434        13.1298167824987     
   13.1506177976145        13.1747939613857        13.2028107512331     
   13.2351685678493        13.2723946886457        13.3150305762520     
   13.3636135311903        13.4186524040245        13.4805972644985     
   13.5498027075685        13.6264868937283        13.7106893880146     
   13.8022303551420        13.9006784594356        14.0053306599122     
   14.1152113433797        14.2290937740882        14.3455449991991     
   14.4629924448521        14.5798060885208        14.6943877607898     
   14.8050880015619        14.9107153740776        15.0102431483471     
   15.1029207308665        15.1882769644723        15.2660996629255     
   15.3364029668070        15.3993867780136        15.4606546714794     
   15.5239615877457        15.5889087448475        15.6538253842256     
   15.7150050156402        15.7718267062001        15.8244988177564     
   15.8722440029280        15.9146510806329        15.9516391214706     
   15.9833913653636        16.0102775200497        16.0327791146364     
   16.0514253734983        16.0667469954388        16.0792518681231     
   16.0894017127538        16.0976036213557        16.1042084185911     
   16.1095132294661        16.1137663626690        16.1171732097749     
   16.1199023286820        16.1220912231598        13.0374753144315     
   13.0410372618062        13.0452374775875        13.0501876850339     
   13.0560181527291        13.0628803829449        13.0709500360817     
   13.0804300461612        13.0915538467286        13.1045885778262     
   13.1198380801895        13.1376454001847        13.1583944271827     
   13.1825101650188        13.2104569267227        13.2427338610399     
   13.2798669259702        13.3223962289971        13.3708577256715     
   13.4257589925804        13.4875489724870        13.5565813723542     
   13.6330738063984        13.7170657408672        13.8083777915321     
   13.9065797041069        14.0109701998703        14.1205761106780     
   14.2341737744311        14.3503338274783        14.4674876332843     
   14.5840092485284        14.6983045010716        14.8087280541053     
   14.9140914466274        15.0133705165743        15.1058165388115     
   15.1909595233315        15.2685878051429        15.3387154825671     
   15.4015419532809        15.4626567903553        15.5258055505507     
   15.5905904438458        15.6553448810939        15.7163716303752     
   15.7730513093224        15.8255917601705        15.8732175808065     
   15.9155186219151        15.9524141612023        15.9840869853394     
   16.0109058820522        16.0333511799473        16.0519507826545     
   16.0672340636430        16.0797076415388        16.0898320834022     
   16.0980134633519        16.1046017286186        16.1098932609350     
   16.1141357477340        16.1175340666468        16.1202563537522     
   16.1224397686865        13.0464418993504        13.0499938999795     
   13.0541823865558        13.0591187702980        13.0649329559402     
   13.0717760225786        13.0798231399349        13.0892766751343     
   13.1003694095810        13.1133677369523        13.1285746490042     
   13.1463322334792        13.1670233068676        13.1910716850658     
   13.2189403831054        13.2511271541323        13.2881564853442     
   13.3305669735905        13.3788930751354        13.4336409464269     
   13.4952582739611        13.5640977748537        13.6403764544128     
   13.7241336688240        13.8151905367468        13.9131180094496     
   14.0172167727662        14.1265163842318        14.2397966081411     
   14.3556320818998        14.4724585580767        14.5886546405774     
   14.7026306131197        14.8127457351935        14.9178148628736     
   15.0168166966769        15.1090045940127        15.1939098657182     
   15.2713214276866        15.3412533310232        15.4039044112787     
   15.4648486333308        15.5278210935884        15.5924251076867     
   15.6569987341334        15.7178550614564        15.7743764357010     
   15.8267701199122        15.8742628804908        15.9164457183531     
   15.9532381421722        15.9848224334579        16.0115663544457     
   16.0339488955612        16.0524964881933        16.0677370284373     
   16.0801757202863        16.0902718442383        16.0984303397105     
   16.1050001758212        16.1102769057404        16.1145075243559     
   16.1178963363777        16.1206110076597        16.1227883142131     
   13.0563809796922        13.0599219110257        13.0640973446858     
   13.0690183446360        13.0748144106980        13.0816361510346     
   13.0896581893130        13.0990822617845        13.1101404241144     
   13.1230982393835        13.1382577545570        13.1559599905681     
   13.1765865699472        13.2005599865881        13.2283418110412     
   13.2604282433567        13.2973421339489        13.3396203985610     
   13.3877958249836        13.4423729892775        13.5037981799250     
   13.5724230125257        13.6484638148115        13.7319598205480     
   13.8227327081084        13.9203547704474        14.0241288797426     
   14.1330876268858        14.2460145893027        14.3614888570178     
   14.4779510670232        14.5937848835745        14.7074055490214     
   14.8171774377477        14.9219190971178        15.0206124132803     
   15.1125130610025        15.1971537985398        15.2743241880536     
   15.3440382279992        15.4064941283144        15.4672484845482     
   15.5300247524354        15.5944274779395        15.6587998915535     
   15.7194665667402        15.7758117729903        15.8280421288433     
   15.8753868139740        15.9174381094125        15.9541157809584     
   15.9856015480477        16.0122620317815        16.0345747334559     
   16.0530644461229        16.0682574218121        16.0806572902586     
   16.0907219002158        16.0988549283489        16.1054042552802     
   16.1106645121078        16.1148819230141        16.1182601551279     
   16.1209663510068        16.1231368597397        13.0673834320878     
   13.0709120666770        13.0750730000131        13.0799769102981     
   13.0857528475415        13.0925508967523        13.1005450749923     
   13.1099364176831        13.1209561742757        13.1338689851524     
   13.1489758477219        13.1666165978136        13.1871715316038     
   13.2110616743928        13.2387469920778        13.2707219593995     
   13.3075076084980        13.3496389876074        13.3976470310479     
   13.4520345592698        13.5132463077501        13.5816326684675     
   13.6574092164937        13.7406150496606        13.8310724681914     
   13.9283552555799        14.0317687128620        14.1403488007141     
   14.2528833325698        14.3679563448315        14.4840139005196     
   14.5994452853134        14.7126712499525        14.8220618507705     
   14.9264397356032        15.0247903294701        15.1163718812537     
   15.2007187568978        15.2776212363258        15.3470932594010     
   15.4093323410294        15.4698757817224        15.5324341059214     
   15.5966132262398        15.6607621184842        15.7212181143571     
   15.7773676200524        15.8294165381853        15.8765967293365     
   15.9185018966696        15.9550520917146        15.9864284096026     
   16.0129962038503        16.0352313215698        16.0536567358591     
   16.0687968724133        16.0811536121680        16.0911832133833     
   16.0992879499554        16.1058144933121        16.1110564502325     
   16.1152591887299        16.1186256676485        16.1213224482197     
   16.1234854052664        13.0795451630993        13.0830601627906     
   13.0872050178518        13.0920899787440        13.0978435967154     
   13.1046153766905        13.1125786631141        13.1219337143127     
   13.1329108857897        13.1457737948193        13.1608222750405     
   13.1783948482142        13.1988703398282        13.2226681467766     
   13.2502464556860        13.2820978282416        13.3187412804491     
   13.3607097898191        13.4085322355194        13.4627094913637     
   13.5236845708523        13.5918065092259        13.6672900470400     
   13.7501741314606        13.8402817523012        13.9371883458723     
   14.0402019064555        14.1483621312830        14.2604615308123     
   14.3750896261157        14.4906984966945        14.6056836613295     
   14.7184719784911        14.8274398046622        14.9314143342363     
   15.0293849162015        15.1206126534702        15.2046336943996     
   15.2812391146173        15.3504427889166        15.4124414614917     
   15.4727510384265        15.5350677058467        15.5989988916328     
   15.6628999419415        15.7231223348614        15.7790548457810     
   15.8309025835308        15.8779003813678        15.9196435194169     
   15.9560523661228        15.9873073244681        16.0137723425297     
   16.0359214332952        16.0542755519113        16.0693570990307     
   16.0816660165061        16.0916567990377        16.0997301651076     
   16.1062314453646        16.1114531108001        16.1156395800860     
   16.1189930267023        16.1216793672901        16.1238339507930     
   13.0929665310200        13.0964664418166        13.1005935040493     
   13.1054574948254        13.1111864134446        13.1179291228881     
   13.1258582232577        13.1351731129166        13.1461031580926     
   13.1589108438501        13.1738947159566        13.1913918419767     
   13.2117794198799        13.2354750445063        13.2629349334780     
   13.2946495314255        13.3311356232315        13.3729238948766     
   13.4205409512345        13.4744855119185        13.5351986848541     
   13.6030280039024        13.6781872861606        13.7607153121210     
   13.8504358347920        13.9469261196274        14.0494971414288     
   14.1571927325070        14.2688106012697        14.3829463383507     
   14.4980586813002        14.6125500466308        14.7248540517692     
   14.8333540250643        14.9368821921712        15.0344322444819     
   15.1252684430854        15.2089289086037        15.2852055970578     
   15.3541123111329        15.4158449420793        15.4758957204200     
   15.5379449651379        15.6016017808627        15.6652285632481     
   15.7251924450852        15.7808848235756        15.8325099291646     
   15.8793058848143        15.9208697158422        15.9571221414912     
   15.9882427988785        16.0145940808524        16.0366479707579     
   16.0549231906521        16.0699399002359        16.0821958955224     
   16.0921437196032        16.1001823696872        16.1066556926678     
   16.1118549026305        16.1160233676676        16.1193623921428     
   16.1220371793659        16.1241824963196        13.1077515116429     
   13.1112347595287        13.1153421728530        13.1201830059904     
   13.1258846487154        13.1325952551008        13.1404866032580     
   13.1497571418797        13.1606351447205        13.1733818465277     
   13.1882943708523        13.2057081793669        13.2259986727481     
   13.2495814558008        13.2769105717469        13.3084741273243     
   13.3447864435577        13.3863756758650        13.4337659175952     
   13.4874535094647        13.5478774550703        13.6153836303131     
   13.6901848325478        13.7723196582644        13.8616127033462     
   13.9576432532712        14.0597255743491        14.1669080653872     
   14.2779941750183        14.3915861966090        14.5061502202841     
   14.6200962797795        14.7318654564592        14.8398487777007     
   14.9428840251338        15.0399696855291        15.1303735074046     
   15.2136357891698        15.2895494589196        15.3581282396108     
   15.4195670805311        15.4793320672142        15.5410859964770     
   15.6044398245103        15.6677637316707        15.7274421382719     
   15.7828693367993        15.8342485877289        15.8808216469253     
   15.9221874670168        15.9582671547248        15.9892395014994     
   16.0154651828072        16.0374139406932        16.0556020312289     
   16.0705471394314        16.0827446916511        16.0926450758002     
   16.1006453882638        16.1070878374029        16.1122622492800     
   16.1164108318139        16.1197339295858        16.1223959581596     
   16.1245310418463        13.1240065657667        13.1274748294875     
   13.1315645734773        13.1363845820395        13.1420616968275     
   13.1487434344208        13.1566008337444        13.1658314894828     
   13.1766626929592        13.1893545545358        13.2042029187791     
   13.2215418031788        13.2417449920684        13.2652263005234     
   13.2924378161525        13.3238655429245        13.3600215856275     
   13.4014318231884        13.4486180892194        13.5020745834831     
   13.5622384149201        13.6294539654458        13.7039331115343     
   13.7857142795148        13.8746228178242        13.9702398226254     
   14.0718825143499        14.1786033931684        14.2892110660186     
   14.4023138523077        14.5163844553302        14.6298397629644     
   14.7411275756767        14.8486458535629        14.9512373849044     
   15.0479049693064        15.1379195073791        15.2208232735978     
   15.2964100831443        15.3646935952071        15.4258679155511     
   15.4853755930524        15.5468636533034        15.6099447256444     
   15.6729960047185        15.7324174744976        15.7876060332558     
   15.8387640654874        15.8851365916752        15.9263242922124     
   15.9622486152315        15.9930875843719        16.0192003240586     
   16.0410545553534        16.0591643126392        16.0740450526708     
   16.0861900690158        16.0960478104596        16.1040136635402     
   16.1104283629971        16.1155804867611        16.1197111996325     
   16.1230199833316        16.1256705452799        16.1277964320956     
   13.1418391675233        13.1452906321669        13.1493605666773     
   13.1541572283513        13.1598068443320        13.1664562164917     
   13.1742755550388        13.1834614972124        13.1942402329128     
   13.2068706119341        13.2216470449520        13.2389019303615     
   13.2590072403950        13.2823747836470        13.3094544552820     
   13.3407299018629        13.3767107435862        13.4179203072706     
   13.4648778932517        13.5180753012494        13.5779475163724     
   13.6448372460003        13.7189553347000        13.8003400186503     
   13.8888174907074        13.9839708778032        14.0851207130633     
   14.1913240954583        14.3013954154918        14.4139497486844     
   14.5274672123224        14.6403723780408        14.7511205782962     
   14.8581175443708        14.9602116762342        15.0564106086269     
   15.1459887739227        15.2284906596713        15.3037110738759     
   15.3716636031850        15.4325414072039        15.4917606507425     
   15.5529506798257        15.6157259985238        15.6784716635169     
   15.7376051051829        15.7925261429123        15.8434361796108     
   15.8895838960981        15.9305719105127        15.9663220546803     
   15.9970114924009        16.0229976100767        16.0447458637258     
   16.0627677974950        16.0775763703686        16.0896624850496     
   16.0994724164681        16.1073996342846        16.1137832211510     
   16.1189103556835        16.1230210331968        16.1263137680088     
   16.1289514735953        16.1310670488799        13.1613559571838     
   13.1647886908309        13.1688365377421        13.1736071676014     
   13.1792261223727        13.1858394070292        13.1936163077602     
   13.2027523942533        13.2134726283239        13.2260344542345     
   13.2407306838772        13.2578919103640        13.2778880854464     
   13.3011287805131        13.3280614461844        13.3591671005630     
   13.3949525935970        13.4359384066093        13.4826410154817     
   13.5355495440969        13.5950966097766        13.6616230531692     
   13.7353385687437        13.8162811812425        13.9042780257199     
   13.9989144941398        14.0995148140031        14.2051412125767     
   14.3146145294961        14.4265573735335        14.5394581284203     
   14.6517499326554        14.7618965159913        14.8683122734367     
   14.9698518607095        15.0655283036597        15.1546199706001     
   15.2366738144734        15.3114857486771        15.3790692779961     
   15.4396165066279        15.4985141842923        15.5593719460491     
   15.6218063852881        15.6842113231550        15.7430236405915     
   15.7976464137658        15.8482799515729        15.8941770163960     
   15.9349423876282        15.9704983257841        16.0010210368514     
   16.0268659701610        16.0484960568839        16.0664200650633     
   16.0811481690242        16.0931686058818        16.1029252268480     
   16.1108093643269        16.1171582589109        16.1222575289719     
   16.1263458658254        16.1296207051062        16.1322440750095     
   16.1343481522499        13.1826604909152        13.1860724482773     
   13.1900957957846        13.1948375513455        13.2004224969286     
   13.2069957535931        13.2147255826142        13.2238063695610     
   13.2344617140681        13.2469475013970        13.2615547700865     
   13.2786121108513        13.2984872343546        13.3215872305139     
   13.3483568385112        13.3792741610281        13.4148429753441     
   13.4555806066798        13.5020003981980        13.5545885059620     
   13.6137749212317        13.6798984144465        13.7531674048441     
   13.8336196831883        13.9210834302393        14.0151465509944     
   14.1151373713983        14.2201238075758        14.3289338529113     
   14.4401984721682        14.5524152180027        14.6640267307141     
   14.7735060534461        14.8792771898646        14.9802017333078     
   15.0752986893347        15.1638507901162        15.2454077211426     
   15.3197666204052        15.3869409009672        15.4471214959647     
   15.5056625310959        15.5661517798273        15.6282081520640     
   15.6902351888239        15.7486913434075        15.8029833041224     
   15.8533101668284        15.8989292214132        15.9394476451414     
   15.9747881748415        16.0051259549543        16.0308142870002     
   16.0523133022453        16.0701286899792        16.0847675361389     
   16.0967151214052        16.1064126087435        16.1142489599901     
   16.1205593725576        16.1256277342006        16.1296912898281     
   16.1329462785813        16.1355537466808        16.1376450697454     
   13.2058505739685        13.2092396031445        13.2132359137259     
   13.2179458043379        13.2234932182377        13.2300223010202     
   13.2377001828920        13.2467199426600        13.2573036766935     
   13.2697055497827        13.2842146434444        13.3011573386064     
   13.3208988727366        13.3438435972835        13.3704332591838     
   13.4011427437791        13.4364724374939        13.4769361826493     
   13.5230438653525        13.5752783666429        13.6340667799779     
   13.6997455914982        13.7725218135484        13.8524329791889     
   13.9393084237807        14.0327388262740        14.1320570361798     